765
 Atoms. Timestep: 500000
Ow 11.1696 8.16067 5.82425
H 12.023 7.55753 5.81192
H 10.31 7.66628 6.18196
Ow 14.8519 4.1866 6.14748
H 14.8817 3.8855 7.15154
H 15.6834 3.75896 5.78974
Ow 6.8925 19.1041 7.94201
H 6.92948 19.5875 8.85939
H 7.61561 18.3749 8.09855
Ow 6.5587 7.73125 19.2489
H 6.00284 6.90639 19.0572
H 5.89648 8.31984 0.0475071
Ow 8.13661 13.3567 3.79741
H 8.64969 13.1182 4.665
H 7.12394 13.2559 3.84363
Ow 2.75014 2.6911 2.47171
H 2.1025 3.51839 2.51618
H 3.45952 2.835 1.69763
Ow 16.0971 13.5124 1.3899
H 15.9961 12.9177 0.524006
H 17.1552 13.5551 1.51426
Ow 14.2933 19.5861 1.83405
H 14.3882 18.8802 2.5616
H 13.269 0.0436767 1.75063
Ow 8.80176 1.44587 4.26526
H 8.0873 1.09124 3.66149
H 9.2732 2.2742 3.82126
Ow 8.86382 11.947 13.0756
H 8.9541 12.6484 12.2574
H 8.52846 12.3907 13.9791
Ow 11.1526 13.4759 15.8011
H 11.0789 13.6786 14.7828
H 12.1084 13.7415 16.0291
Ow 16.9522 4.91235 11.7589
H 17.4951 4.25986 11.102
H 17.2475 5.90625 11.6161
Ow 18.5304 14.9592 16.5854
H 19.2769 15.5575 16.1996
H 18.462 14.9726 17.6437
Ow 5.34516 3.45506 7.57522
H 5.94545 2.82183 7.05319
H 5.27823 4.31656 7.00052
Ow 19.5342 10.6397 16.5299
H 0.689452 11.1622 16.607
H 19.4708 10.0931 17.4575
Ow 0.917357 14.6571 2.79839
H 1.38083 15.0346 1.95469
H 1.01321 15.2749 3.61868
Ow 0.729001 16.5167 15.5041
H 0.79766 16.7457 14.4915
H 19.7018 17.0612 15.9192
Ow 14.2064 17.4757 3.5892
H 13.9931 16.4901 3.58611
H 15.2295 17.5512 3.63458
Ow 4.83498 5.63172 18.8999
H 4.28744 5.80379 18.0495
H 4.08671 5.46114 19.6147
Ow 0.809956 11.0704 0.929262
H 1.82646 11.2439 0.967176
H 0.548494 10.3469 0.182319
Ow 11.7128 10.7408 9.49798
H 11.2597 10.7166 10.3948
H 11.8111 9.74382 9.16253
Ow 12.6449 5.76635 17.8533
H 12.2804 5.3505 18.7431
H 11.7264 5.94893 17.3807
Ow 2.45392 0.796064 13.3048
H 1.45943 0.694174 12.9602
H 2.56963 1.03382 14.2633
Ow 11.9727 13.3167 8.66295
H 11.4515 13.9825 9.23651
H 11.6708 12.3751 9.05022
Ow 9.00547 10.7303 17.9282
H 10.0246 10.5876 17.7077
H 8.80305 11.7069 17.745
Ow 9.01223 4.81324 14.9537
H 8.09477 5.07079 15.3347
H 8.9097 4.16056 14.1635
Ow 10.9499 3.51801 11.082
H 10.9837 3.88278 10.1222
H 10.278 2.76479 11.2499
Ow 3.44424 5.83065 9.20014
H 4.37929 5.45344 9.29053
H 3.46169 6.1736 8.21733
Ow 5.63976 10.5959 15.1972
H 6.12039 11.5586 15.2338
H 5.10393 10.5252 15.9949
Ow 18.2124 12.3521 12.496
H 18.7202 11.6198 11.9894
H 18.667 13.2519 12.3218
Ow 9.77136 11.4712 2.50503
H 10.2558 11.9395 1.68221
H 9.09866 12.1786 2.81831
Ow 13.0477 10.7613 18.8043
H 12.4821 10.9738 17.9488
H 12.4876 10.0927 19.3967
Ow 12.621 15.2927 6.21413
H 12.9296 14.9524 7.13339
H 13.2869 15.8478 5.6339
Ow 17.6253 6.11945 18.1798
H 17.5407 5.08474 17.922
H 18.6755 6.30283 18.274
Ow 9.71432 17.0818 12.6362
H 8.72035 17.2238 12.4567
H 10.1538 17.9744 12.3702
Ow 15.5878 11.9878 18.9231
H 14.5566 11.8994 18.9028
H 15.9517 12.1905 18.0265
Ow 14.3497 8.75693 15.619
H 13.4508 8.63893 15.1986
H 15.0434 8.44626 14.9163
Ow 15.5587 16.3753 8.16912
H 16.0982 15.8699 7.47813
H 15.7696 16.0948 9.15954
Ow 13.821 14.1275 15.7327
H 14.4053 14.6859 16.3708
H 14.0228 13.1033 15.8612
Ow 2.17451 12.0744 16.7873
H 2.32365 12.7107 15.9902
H 2.43762 12.5573 17.6619
Ow 15.5253 12.3532 11.9071
H 15.458 12.189 10.8636
H 16.5737 12.3019 12.1409
Ow 1.00522 8.47867 15.0272
H 2.03428 8.29299 15.2613
H 0.640379 9.32073 15.5063
Ow 6.95412 8.1009 16.2341
H 6.53223 9.03309 16.2099
H 7.07253 7.96443 17.2963
Ow 11.8858 4.92698 5.01827
H 11.7203 3.99019 5.39717
H 12.7128 5.32652 5.52138
Ow 9.0418 1.37062 11.7858
H 8.63812 1.89349 12.5365
H 9.77613 0.748836 12.1629
Ow 3.85797 7.5168 11.3761
H 4.42906 8.19004 10.8481
H 3.62833 6.80907 10.6312
Ow 0.620615 2.71851 0.525739
H 1.37657 2.91459 19.6259
H 0.585525 3.46609 1.30196
Ow 3.11357 0.0400177 5.29972
H 3.18516 19.6302 6.29972
H 2.21982 0.436284 5.05344
Ow 19.4233 10.288 10.9228
H 0.139308 10.5221 10.0463
H 0.157904 9.50388 11.3574
Ow 17.7902 2.33398 0.37355
H 18.7901 2.47122 0.630854
H 17.7468 2.69156 19.1509
Ow 8.98949 15.3146 2.29094
H 8.81014 14.5292 2.94247
H 8.92262 16.1928 2.78582
Ow 4.89868 0.249728 3.14381
H 4.16873 19.6738 2.47945
H 4.39258 0.394777 4.05115
Ow 2.97902 17.9923 12.4204
H 2.52549 18.886 12.6092
H 3.70065 17.7575 13.1218
Ow 6.4006 11.2825 18.8199
H 5.66071 10.6737 19.0218
H 7.25562 10.8039 18.663
Ow 19.1524 14.6079 11.6142
H 18.3877 15.0187 11.1361
H 0.0228519 15.4198 11.9308
Ow 0.602901 18.452 3.14322
H 19.3219 18.3887 3.04166
H 0.852408 17.6289 3.69085
Ow 2.78606 19.1928 1.55776
H 1.90955 19.1454 2.12401
H 2.68297 0.0743414 0.71696
Ow 3.75847 9.60761 7.24812
H 4.06303 9.63305 8.22778
H 3.99217 10.5575 6.92325
Ow 19.6345 8.93446 7.02417
H 0.720442 8.98211 6.37259
H 19.2862 7.97894 7.15082
Ow 12.7484 7.97382 9.36186
H 13.6953 8.00446 8.82776
H 12.9567 7.60745 10.2947
Ow 9.98023 8.09665 8.55084
H 10.8962 8.07699 9.1126
H 9.83744 7.34222 7.86343
Ow 6.03673 14.0465 18.2656
H 6.48108 14.7208 18.8732
H 6.48129 13.1672 18.5791
Ow 12.3345 1.97771 8.99238
H 11.9186 2.85316 8.86317
H 12.5233 1.7545 9.95433
Ow 4.61395 10.8238 3.43624
H 4.25795 11.6408 3.93459
H 5.55872 10.6611 3.76882
Ow 4.74397 19.709 18.3375
H 3.83794 19.3 18.1247
H 5.22439 19.1422 19.0316
Ow 7.0905 17.8579 12.1307
H 6.56407 18.0659 13.016
H 6.87799 18.5472 11.3923
Ow 9.27444 6.44543 6.62866
H 9.06295 5.44001 6.76163
H 8.81393 6.6298 5.74408
Ow 4.25804 3.88266 14.5799
H 3.50531 4.40278 14.1879
H 4.86422 3.72974 13.7444
Ow 14.4964 4.57179 10.8381
H 15.371 5.00146 11.1226
H 13.8142 5.0423 11.3579
Ow 13.6186 10.7067 13.1674
H 13.9372 11.053 14.0947
H 14.1983 11.2037 12.4807
Ow 14.5014 2.37308 0.324779
H 14.6031 2.12237 1.30634
H 13.4761 2.36912 0.144412
Ow 15.0223 18.7844 7.12737
H 14.0094 19.0777 7.10953
H 15.0881 17.7864 7.41827
Ow 2.84436 17.6389 9.78256
H 2.9651 17.966 10.7363
H 1.83421 17.7981 9.53745
Ow 11.1815 4.28191 8.52461
H 11.5334 5.2253 8.28023
H 10.2983 4.10988 7.9389
Ow 3.54391 17.2532 15.6488
H 2.58118 17.1363 15.9293
H 4.0643 16.6128 16.2519
Ow 7.17879 1.17551 18.2649
H 6.98092 2.18472 18.2226
H 6.3046 0.689273 18.0094
Ow 1.0193 7.86164 12.0197
H 0.89131 8.05016 13.0294
H 2.01299 7.89732 11.864
Ow 8.48026 5.31636 19.0683
H 7.84642 5.9661 19.5633
H 7.80832 4.70318 18.5337
Ow 3.54396 15.9527 5.74628
H 4.04165 15.4973 5.01225
H 4.24323 16.3829 6.35618
Ow 10.1521 19.7174 6.01227
H 9.82909 18.7588 5.73792
H 9.65423 0.539619 5.32021
Ow 8.86061 18.2722 3.78478
H 9.81262 18.1818 3.40649
H 8.67702 19.2652 3.61973
Ow 15.611 15.6779 17.3468
H 15.4918 15.2604 18.2808
H 16.5989 15.5812 16.9987
Ow 13.4635 0.967164 11.3242
H 14.2222 0.602342 10.7428
H 13.6143 1.4055 12.208
Ow 16.044 18.3307 17.0466
H 15.7892 18.5859 16.0799
H 15.8635 17.335 17.2128
Ow 15.2999 7.6764 8.44242
H 16.1632 8.16765 8.09039
H 15.6363 7.36774 9.31161
Ow 3.5729 6.99117 6.46323
H 4.47292 6.53306 6.59439
H 3.76167 8.03311 6.44168
Ow 19.6077 0.115463 12.8071
H 18.6614 0.203157 12.4439
H 0.0600791 0.356891 13.8003
Ow 16.8191 19.7041 0.727973
H 16.9753 1.0048 0.612995
H 15.8435 19.634 1.09638
Ow 6.00562 5.0853 9.76108
H 6.01288 4.41337 9.01847
H 6.47165 5.97258 9.52026
Ow 8.09382 8.43297 1.79056
H 7.54767 8.51207 0.919503
H 8.85648 9.15795 1.69394
Ow 11.1839 19.448 12.4015
H 11.2447 19.5432 13.4465
H 11.9822 0.193431 11.862
Ow 18.7087 15.3307 19.2182
H 18.8428 14.4967 0.0153185
H 18.1975 15.9778 0.107237
Ow 14.4283 14.5795 13.0693
H 14.0749 14.4268 14.0327
H 14.8079 13.6919 12.7386
Ow 2.17362 18.32 18.2627
H 2.15131 17.2877 18.4516
H 1.3313 18.6985 18.7013
Ow 16.477 2.82254 13.357
H 15.526 2.69662 13.6945
H 16.5286 3.73849 12.8238
Ow 14.7949 17.9214 19.3434
H 15.5752 17.9374 0.212521
H 15.1044 18.2839 18.413
Ow 10.9641 5.04797 0.201363
H 10.0569 5.24057 19.4317
H 10.8259 5.4427 1.08112
Ow 3.74954 12.9765 4.87732
H 4.29824 13.7692 4.50587
H 4.02642 12.7041 5.82195
Ow 0.842113 4.63914 2.46272
H 1.50318 5.37292 2.07025
H 0.0958531 5.1638 2.95743
Ow 4.24516 3.39585 4.66254
H 3.67888 3.0719 3.84487
H 4.51635 2.54139 5.0711
Ow 9.55369 3.5972 2.69707
H 8.71397 3.86767 2.11325
H 10.1373 4.38859 2.64834
Ow 18.4684 7.19255 10.7982
H 19.2492 7.70205 11.24
H 18.8172 6.91572 9.84425
Ow 11.4571 8.47027 15.2018
H 11.0434 8.2967 14.2617
H 11.1391 7.65343 15.7933
Ow 11.8152 2.47815 0.14403
H 11.3674 3.39774 0.350683
H 11.3362 2.22045 18.9597
Ow 1.516 3.97821 10.2103
H 1.91694 3.17933 9.71649
H 2.04471 4.80835 10.0542
Ow 18.014 12.848 6.0976
H 18.7868 12.2583 5.87496
H 17.1413 12.4788 5.69727
Ow 10.993 2.77918 15.623
H 10.3937 3.59578 15.3287
H 11.9458 3.19495 15.7332
Ow 11.4571 18.1222 2.67561
H 12.2378 17.7985 3.14456
H 11.63 19.1511 2.71172
Ow 13.7016 7.85841 3.35188
H 12.7213 7.95163 3.23323
H 13.8155 7.71818 4.39385
Ow 4.423 1.43742 11.5923
H 3.76371 1.02483 12.2672
H 3.80121 1.77201 10.8224
Ow 11.1115 10.4602 12.124
H 12.0412 10.5446 12.5794
H 10.3838 10.8463 12.7133
Ow 12.832 16.8856 9.00624
H 13.815 16.6567 8.74368
H 12.5299 17.7345 8.52556
Ow 16.1936 8.42448 11.0984
H 16.0501 8.38475 12.1056
H 17.0418 7.89966 10.9483
Ow 0.581746 16.9791 12.7967
H 0.0987849 17.8192 12.4849
H 1.61838 17.0226 12.5035
Ow 10.9238 19.6927 15.1215
H 10.6587 19.1838 15.9696
H 10.8207 0.988629 15.2735
Ow 11.6708 12.5173 0.532928
H 12.4003 12.009 19.7217
H 11.6162 13.4594 0.111519
Ow 11.4903 10.8766 16.8142
H 11.3638 10.0312 16.2635
H 11.3391 11.7792 16.309
Ow 6.91671 16.515 4.5443
H 6.36237 16.6413 5.43802
H 7.59427 17.286 4.29317
Ow 16.2957 15.1804 5.67937
H 16.7688 14.2751 5.97051
H 15.4647 14.9355 5.06971
Ow 3.14231 2.0529 8.90377
H 3.73327 2.76702 8.62178
H 3.52428 1.16694 8.53724
Ow 5.04339 1.73791 15.7459
H 5.79689 1.83379 16.398
H 4.84667 2.54834 15.1016
Ow 6.96423 9.94326 12.7311
H 6.28465 9.95389 13.5145
H 7.41885 10.8917 12.8176
Ow 3.41374 11.41 1.09042
H 3.9042 11.4628 1.99228
H 3.86317 10.6634 0.518827
Ow 18.8891 13.2376 1.36881
H 19.4771 13.8934 1.91917
H 19.5199 12.4113 1.21969
Ow 1.93227 9.55786 5.16407
H 2.6886 9.68079 5.89024
H 1.50567 10.3804 4.78106
Ow 17.8167 10.1073 14.1517
H 18.2953 10.5818 15.0125
H 17.9866 10.7515 13.3758
Ow 9.25045 13.5076 17.6087
H 9.72754 13.7602 18.4975
H 9.82186 13.5956 16.7347
Ow 19.3488 3.62963 7.15177
H 19.6172 2.99728 7.93816
H 0.435518 4.00141 6.72451
Ow 8.81165 9.71953 6.68339
H 9.47913 9.21525 7.27693
H 8.0816 10.272 7.18187
Ow 7.41392 0.487825 2.37758
H 7.52314 19.4486 1.70226
H 6.42811 0.320056 2.79199
Ow 14.6564 7.55283 18.1063
H 13.8122 6.98164 18.0188
H 14.437 8.13333 17.2451
Ow 8.27399 16.7654 16.4439
H 9.00234 17.4603 16.7653
H 8.68645 15.8401 16.5444
Ow 8.60506 13.6427 10.3537
H 9.30598 14.3085 10.0394
H 7.65349 13.9384 10.748
Ow 16.2503 8.01444 13.818
H 16.8024 8.8741 14.0546
H 16.9221 7.27527 14.1171
Ow 6.39761 5.17644 15.7847
H 6.45623 6.17525 15.6704
H 5.48194 4.89337 15.471
Ow 4.86685 12.1407 7.27693
H 5.87579 12.1698 7.50526
H 4.36011 12.1597 8.18692
Ow 9.75843 12.9331 5.95398
H 10.2636 13.5501 6.58104
H 10.3872 12.1056 5.89802
Ow 17.4199 7.45063 1.95828
H 17.0486 7.95789 2.78298
H 18.4301 7.51231 2.0794
Ow 11.8946 1.04637 2.62866
H 11.5871 1.50145 1.77177
H 12.4365 1.80736 3.08511
Ow 5.2592 18.7502 14.2869
H 4.51341 18.1716 14.7606
H 5.14406 19.6913 14.605
Ow 4.24726 14.6209 13.3353
H 5.04647 14.809 14.0378
H 4.61322 14.722 12.3656
Ow 15.8107 3.40711 8.89681
H 15.2457 3.91485 9.58975
H 16.7435 3.46935 9.31819
Ow 5.99724 15.0569 15.5187
H 6.56694 15.8259 15.6286
H 5.78963 14.749 16.4711
Ow 7.04496 1.75715 6.16948
H 7.52701 1.94672 5.30012
H 6.94789 0.770305 6.39629
Ow 8.29167 7.71362 13.7485
H 8.04255 7.96341 14.7075
H 7.82683 8.34669 13.0588
Ow 11.2373 14.4613 13.2854
H 12.1729 14.587 12.9114
H 10.6818 15.3139 13.168
Ow 6.55685 3.58205 18.0394
H 5.7071 3.94188 18.6004
H 6.52538 4.21123 17.2216
Ow 7.59231 2.69394 13.8218
H 7.0315 2.11827 14.4021
H 7.00356 3.31504 13.2573
Ow 16.8266 0.39599 12.6966
H 16.1419 0.158331 13.4038
H 16.6304 1.46978 12.6525
Ow 4.99258 6.7854 13.6211
H 5.97622 7.13323 13.4585
H 4.48377 6.80341 12.6973
Ow 6.78626 9.62423 4.63745
H 6.95141 9.22724 3.71308
H 7.63584 9.39513 5.162
Ow 17.443 17.1915 1.19851
H 17.4217 18.1616 0.88267
H 17.3608 17.213 2.25706
Ow 7.0361 3.05307 1.77248
H 7.28864 2.08532 2.09553
H 6.7054 2.99539 0.812569
Ow 2.01524 13.7336 11.152
H 2.43312 14.2945 11.9216
H 0.969648 13.7204 11.1952
Ow 3.57613 8.13118 3.34829
H 3.29327 7.72354 4.23841
H 3.82491 9.13503 3.52088
Ow 14.7163 11.5912 15.9834
H 14.5777 10.55 16.0169
H 15.7726 11.8797 16.0901
Ow 19.4136 1.21195 8.30764
H 0.0881093 0.345837 8.6295
H 19.0558 1.18344 7.33424
Ow 18.899 6.46419 15.1878
H 18.9946 6.52299 16.1847
H 19.5689 7.18116 14.8063
Ow 15.0273 8.87938 1.31128
H 14.5038 8.46023 2.11115
H 15.3075 9.8146 1.63502
Ow 2.31748 3.3207 18.2873
H 2.22655 2.6558 17.5198
H 2.2657 4.26999 17.8627
Ow 10.36 15.8322 9.94995
H 10.3918 16.3489 10.8652
H 11.2756 16.0533 9.51174
Ow 0.36861 18.0948 9.1202
H 19.4635 17.7879 8.37184
H 19.441 18.5162 9.75111
Ow 6.06577 5.71237 6.46116
H 6.50067 5.44454 5.56191
H 6.69603 6.33673 6.98205
Ow 18.7289 0.869935 5.69769
H 19.3981 1.12632 4.99619
H 17.7894 0.778366 5.29381
Ow 1.52499 14.1187 8.11286
H 1.42019 14.7809 7.38881
H 1.24884 14.4371 9.04996
Ow 0.469002 7.60049 3.59707
H 0.814399 8.49275 4.02012
H 0.579554 7.70708 2.55523
Ow 4.18811 15.2963 9.27663
H 3.55386 14.6392 8.82667
H 3.51771 16.0703 9.40468
Ow 4.44534 9.00505 0.686414
H 3.6446 8.62934 0.161913
H 4.36482 8.80598 1.69543
Ow 18.7529 3.36974 15.212
H 18.202 3.03949 14.3789
H 18.8125 4.42848 15.1111
Ow 3.59644 8.02212 15.651
H 4.01802 8.6559 16.3374
H 4.22512 7.67572 14.859
Ow 10.7551 8.8728 3.32371
H 10.754 8.56244 4.28489
H 10.479 9.86318 3.28878
Ow 6.95022 0.701589 10.391
H 6.15062 0.913145 10.9488
H 7.80702 1.11293 10.7533
Ow 12.3073 4.50652 13.251
H 11.8242 3.92383 12.5257
H 12.2687 5.50506 13.0011
Ow 13.5287 3.54276 16.3255
H 14.3469 3.14967 16.8946
H 13.218 4.44738 16.8247
Ow 12.4901 19.5057 7.50352
H 11.7121 19.4079 6.86459
H 12.3129 0.608535 8.09489
Ow 14.7331 14.6018 3.70655
H 14.076 13.9212 3.46216
H 15.4455 14.5228 2.95098
Ow 17.5188 3.50857 17.5142
H 16.8715 2.69909 17.537
H 18.1876 3.39456 16.7227
Ow 0.771476 11.1149 8.68115
H 1.05347 11.993 8.19319
H 0.437585 10.3071 8.09099
Ow 13.1616 6.88577 12.1244
H 12.1263 7.09348 12.281
H 13.8798 7.58945 12.4054
Ow 17.0349 9.0974 4.10793
H 16.4542 9.75203 4.57592
H 17.9664 9.53209 3.75309
Ow 1.59988 4.64856 5.39535
H 1.45758 5.63581 5.27947
H 2.59674 4.4379 5.37189
Ow 7.4676 12.4673 8.12323
H 8.26641 12.408 8.81431
H 7.70666 13.2376 7.49662
Ow 9.71787 1.31575 17.6638
H 9.70279 2.07422 16.9898
H 8.696 1.17665 17.9204
Ow 15.1522 19.2357 14.6319
H 14.4567 0.239357 14.8795
H 14.6351 18.5551 14.0593
Ow 15.6795 0.675453 9.45771
H 15.2786 19.6188 8.88022
H 15.3114 1.56 9.16954
Ow 2.48587 0.989962 16.6278
H 3.4498 1.30801 16.3461
H 2.43469 0.142992 17.2451
Ow 5.72696 3.59209 12.2295
H 5.83726 4.24165 11.4654
H 5.23628 2.70557 11.8874
Ow 15.5806 5.35759 0.483509
H 14.6481 4.94412 0.496443
H 16.0186 4.76842 1.18847
Ow 15.4339 1.7664 17.5634
H 15.566 0.759163 17.5515
H 15.0187 1.98287 18.521
Ow 0.0700418 0.956839 15.5461
H 1.03082 1.0586 16.0437
H 19.5261 1.96382 15.4338
Ow 1.02422 12.4432 4.75493
H 0.648207 13.2211 4.26115
H 2.04129 12.5661 4.66829
Ow 17.1246 9.47455 19.0976
H 18.1661 9.46572 19.002
H 16.8105 10.4541 18.9873
Ow 14.1152 2.52968 3.94965
H 13.7878 3.22442 4.60257
H 14.7865 2.84059 3.23727
Ow 10.7235 7.6815 12.1533
H 10.9487 8.71244 11.9639
H 9.80988 7.54342 12.6811
Ow 16.3089 3.56466 2.2664
H 16.8541 2.99455 1.58007
H 16.7064 3.5512 3.217
Ow 4.30555 2.63315 0.300431
H 3.61059 2.97139 19.3185
H 4.57326 1.66076 0.122435
Ow 2.94354 6.22908 1.4802
H 3.18325 6.9473 2.18162
H 2.48686 6.80758 0.756592
Ow 0.987873 1.99926 4.43489
H 0.771806 2.95925 4.88482
H 1.65254 2.17508 3.66965
Ow 1.76216 15.3886 19.7023
H 0.792585 15.5432 19.3721
H 2.4065 14.9011 19.0841
Ow 14.3613 11.9916 7.52667
H 13.749 12.7069 7.92621
H 15.1753 11.6467 8.02633
Ow 3.96007 19.3885 7.92382
H 3.63041 18.7028 8.62644
H 4.97045 19.1074 7.8356
Ow 3.52059 13.4552 18.8962
H 4.49074 13.6532 18.5947
H 3.35658 12.6464 19.5218
Ow 18.0337 14.1861 8.49362
H 17.1817 13.6786 8.85138
H 18.4826 13.7707 7.61949
Ow 10.1578 6.32622 17.0078
H 9.62843 5.86611 16.266
H 9.56302 6.30872 17.8404
Ow 18.9612 16.0518 6.87801
H 18.5727 16.9516 7.1808
H 18.608 15.3296 7.47468
Ow 1.98022 4.74959 13.1679
H 1.42118 5.5258 13.6238
H 1.66994 4.70892 12.2108
Ow 14.0772 6.95329 6.14116
H 14.5367 6.03521 6.07022
H 14.3697 7.56293 6.97442
Ow 0.966344 16.1449 4.96046
H 0.230076 16.0822 5.70092
H 1.88403 16.2433 5.39534
Ow 12.7313 12.5957 3.42407
H 11.8814 12.7257 2.8612
H 12.4192 12.1046 4.26009
Ow 19.4722 19.1096 19.1403
H 19.3003 19.042 18.111
H 18.6922 19.507 19.6508
Ow 5.68764 9.44109 10.1444
H 6.35606 9.62636 10.8876
H 5.35958 10.3657 9.73508
Ow 18.2271 3.15067 10.1957
H 19.1858 3.37208 10.2862
H 18.1407 2.18879 9.86063
Ow 15.1187 11.4187 2.51266
H 14.1134 11.7425 2.77122
H 15.6152 12.2563 2.06967
Ow 15.9967 11.1071 9.61829
H 15.8253 10.4346 10.3657
H 16.6197 10.6274 8.95414
Ow 15.9711 16.0093 11.1118
H 15.4925 16.8856 11.3241
H 15.4564 15.2347 11.4892
Ow 6.01578 18.0576 0.357031
H 6.79854 17.3561 0.22285
H 5.32914 17.346 0.748523
Ow 6.29493 15.0063 11.4036
H 6.33427 15.8638 12.0092
H 5.63792 15.1561 10.5993
Ow 6.98369 7.68006 8.62948
H 8.02778 7.9918 8.72678
H 6.39044 8.34474 9.10783
Ow 16.1262 0.38914 4.78792
H 15.5183 1.16627 4.52487
H 15.6813 19.4915 5.52821
Ow 13.9554 2.44975 13.8156
H 13.8487 2.78734 14.8156
H 13.3418 3.18777 13.3617
Ow 11.4907 8.94662 0.452581
H 11.4004 8.01255 0.192234
H 11.221 8.9939 1.4401
Ow 3.72708 10.0444 17.5198
H 3.24615 9.29894 18.0066
H 3.03415 10.7592 17.259
Ow 19.1468 10.2893 3.07835
H 19.5447 10.4082 2.13492
H 19.5063 11.0032 3.74074
Ow 5.79724 16.4229 7.26819
H 6.72961 16.7782 7.59514
H 5.42122 15.7768 7.94131
Ow 17.866 18.5092 7.22279
H 18.1693 19.0637 6.40765
H 16.9188 18.7491 7.42908
Ow 9.14182 3.76313 7.06063
H 8.30357 3.16278 6.99923
H 9.89876 3.19521 6.6757
Ow 17.0084 17.4035 3.91189
H 17.3317 16.6701 4.6141
H 17.1097 18.3294 4.27151
Ow 2.26542 13.9798 14.8926
H 2.99126 14.3386 14.2696
H 1.70875 14.8025 14.9692
Ow 3.26045 11.9872 9.59667
H 2.4215 11.43 9.45361
H 2.90921 12.8132 10.1098
Ow 17.7966 6.42291 4.71253
H 17.426 7.39259 4.64187
H 18.7172 6.60797 4.39751
Ow 8.52302 16.9641 8.17515
H 8.84341 16.6799 7.22447
H 9.27034 16.926 8.83034
Ow 8.5135 6.58446 3.96259
H 8.22748 7.32642 3.244
H 8.08126 5.68934 3.82895
Ow 2.55334 5.75732 17.18
H 1.70985 6.28136 17.4594
H 2.92805 6.1941 16.3372
Ow 10.1971 16.3978 5.86816
H 9.71106 15.6907 5.34651
H 11.0977 16.0848 6.32484
Ow 10.1434 18.3585 17.5859
H 10.0017 19.3695 17.6205
H 10.589 17.9989 18.4478
Ow 17.2235 3.92449 5.01891
H 17.2014 4.95135 4.85867
H 17.8508 3.69623 5.77705
Ow 18.6943 18.3326 16.559
H 19.0055 19.2177 16.0776
H 17.6959 18.3659 16.6975
Ow 5.09046 15.1282 3.53117
H 4.67196 15.6631 2.73364
H 5.90951 15.6981 3.90473
Ow 11.8896 17.3245 19.6463
H 11.7641 17.5108 0.892911
H 12.8671 17.5507 19.4162
Ow 16.1946 11.4685 5.15796
H 15.4341 11.7581 5.76592
H 16.035 11.3607 4.12561
Ow 18.8413 6.39296 8.05932
H 19.1623 5.38382 8.13747
H 18.1413 6.31595 7.35652
Ow 13.8934 17.1529 13.2819
H 12.9499 17.4635 13.0317
H 13.9301 16.1091 13.391
Ow 10.4559 14.9565 19.5091
H 9.96087 15.1688 0.69501
H 11.0852 15.7547 19.2476
Ow 7.62867 15.9037 0.0737322
H 8.22181 16.2371 19.0541
H 8.0252 15.6897 0.999532
Ow 3.73679 16.3941 1.43482
H 2.96375 15.9585 0.942308
H 3.44224 17.3321 1.61767
Ow 17.3272 12.3433 16.5136
H 17.5882 13.3677 16.4579
H 18.2302 11.8637 16.4369
Ow 11.6115 11.016 6.00725
H 12.2059 11.1643 6.82175
H 11.498 9.95819 5.99599
Ow 11.6007 2.40325 6.17454
H 11.1802 1.46689 6.00721
H 12.5315 2.21586 6.58035
Ow 7.16132 12.7222 15.2943
H 6.81231 13.6344 15.0515
H 7.61945 12.6837 16.2133
Ow 10.745 5.80449 2.73422
H 10.0096 6.37012 3.21068
H 11.3478 5.49998 3.54189
Ow 6.3264 4.85054 3.67483
H 5.51149 4.36497 4.04631
H 6.61199 4.29303 2.87954
Ow 17.0438 9.65887 7.43836
H 18.0346 9.42085 7.19432
H 16.7332 10.4057 6.85113
Ow 17.7549 18.8384 10.4274
H 17.5135 19.0641 11.3733
H 17.1481 19.4717 9.81532
S 0.694431 8.07016 19.264
O 0.286697 7.68776 0.899454
O 0.00506025 9.26119 18.8981
O 2.20119 8.30921 19.277
O 0.411175 7.0438 18.3016
Ca 16.2584 7.48652 19.6201
