
# LAMMPS data file written by OVITO Basic 3.8.2
765 atoms
5 atom types
2 bond types
2 angle types
510 bonds
259 angles

0.0 19.7319 xlo xhi
0.0 19.7319 ylo yhi
0.0 19.7319 zlo zhi

Masses

1 15.9994  # Ow
2 1.00794  # H
3 40.0780  # Ca 
4 32.0650  # S
5 15.9994  # O

Atoms  # full

1 1 1 -0.82 13.0188999 15.5840998 1.69392002
2 1 2 0.41 12.7531004 14.8767996 2.2613101
3 1 2 0.41 12.1610003 16.1259995 1.55843997
4 2 1 -0.82 2.39850998 5.06399012 17.4605999
5 2 2 0.41 1.6473 5.07535982 16.8199997
6 2 2 0.41 2.60723996 6.02085018 17.7150002
7 3 1 -0.82 16.2313004 14.2564001 3.45920992
8 3 2 0.41 15.2726002 14.1152 3.84850001
9 3 2 0.41 16.1047993 15.0429001 2.91560006
10 4 1 -0.82 16.8742008 8.11686993 16.2478008
11 4 2 0.41 16.6882992 7.19110012 16.4428997
12 4 2 0.41 16.8610001 8.12965965 15.2165003
13 5 1 -0.82 15.6147003 14.4166002 0.626702011
14 5 2 0.41 14.7227001 14.7814999 0.629276991
15 5 2 0.41 15.8935003 14.5481997 19.4139996
16 6 1 -0.82 2.42744994 3.95941997 10.2820997
17 6 2 0.41 1.78596997 3.74058008 10.9841003
18 6 2 0.41 1.81984997 3.80554008 9.47583961
19 7 1 -0.82 14.9812002 0.426817 7.55553007
20 7 2 0.41 14.8866997 19.1847992 7.64456987
21 7 2 0.41 15.2131996 0.359894991 6.54763985
22 8 1 -0.82 18.3509007 16.6585007 18.5548992
23 8 2 0.41 18.2021008 16.7759991 19.5098
24 8 2 0.41 19.0177002 15.9083004 18.6830997
25 9 1 -0.82 17.2054005 13.3277998 10.5145998
26 9 2 0.41 17.4002991 14.1450996 10.9337997
27 9 2 0.41 17.2926998 13.4870996 9.59657001
28 10 1 -0.82 8.99584961 12.8262997 15.6801004
29 10 2 0.41 8.5651598 13.3441 16.4207993
30 10 2 0.41 9.77849007 12.3626003 16.0158997
31 11 1 -0.82 5.11119986 10.5229998 7.79762983
32 11 2 0.41 4.77408981 10.4415998 8.71790981
33 11 2 0.41 5.45555019 9.61802959 7.50605011
34 12 1 -0.82 1.05150998 1.40614998 3.51796007
35 12 2 0.41 1.39207006 0.959748983 4.31362009
36 12 2 0.41 1.75901997 1.88169003 3.05267
37 13 1 -0.82 4.16296005 10.5290003 10.8144999
38 13 2 0.41 3.94607997 9.92537975 11.507
39 13 2 0.41 5.12328005 10.599 10.7818003
40 14 1 -0.82 11.9935999 3.09388995 0.519241989
41 14 2 0.41 12.1812 3.37707996 19.3083992
42 14 2 0.41 12.2512999 2.16754007 0.615646005
43 15 1 -0.82 19.3409996 1.23961997 12.1077003
44 15 2 0.41 18.6441994 0.733642995 12.5985003
45 15 2 0.41 18.9104996 1.62416995 11.2943001
46 16 1 -0.82 18.2108994 9.73904991 5.54586983
47 16 2 0.41 19.0018005 10.3064003 5.77307987
48 16 2 0.41 17.8549004 10.0755997 4.70877981
49 17 1 -0.82 15.8808002 17.4319 7.63549995
50 17 2 0.41 15.3113003 16.8251991 8.19136047
51 17 2 0.41 16.3136997 16.7905006 6.97622013
52 18 1 -0.82 14.0883999 9.66084957 10.2616997
53 18 2 0.41 13.6275997 9.53808975 11.0895996
54 18 2 0.41 14.9334002 9.29541969 10.5271997
55 19 1 -0.82 14.8613997 16.5976009 3.42662001
56 19 2 0.41 14.0059996 16.3388004 2.97327995
57 19 2 0.41 14.6506996 16.6033001 4.38681984
58 20 1 -0.82 0.800179005 14.6807003 2.66762996
59 20 2 0.41 1.49440002 14.1503 2.19673991
60 20 2 0.41 1.23023999 15.5374002 2.95188999
61 21 1 -0.82 18.0681992 3.54503989 16.7619991
62 21 2 0.41 17.2453995 4.06772995 16.5464001
63 21 2 0.41 18.8068008 3.9686501 16.2362003
64 22 1 -0.82 2.32061005 6.54930019 12.0016003
65 22 2 0.41 1.56867003 6.36186981 12.6257
66 22 2 0.41 3.07298994 6.0536499 12.2806997
67 23 1 -0.82 4.00344992 16.8561001 1.73203003
68 23 2 0.41 4.36195993 16.3405991 2.51826
69 23 2 0.41 3.09206009 16.6588001 1.90572
70 24 1 -0.82 2.78008008 15.5073004 11.1729002
71 24 2 0.41 3.61279011 15.3698997 11.6307001
72 24 2 0.41 2.48319006 14.6108999 10.9779997
73 25 1 -0.82 7.70502996 18.1837997 18.6609001
74 25 2 0.41 7.73345995 17.4608994 19.3504009
75 25 2 0.41 6.73927021 18.3742008 18.7868996
76 26 1 -0.82 15.0969 8.69676971 4.74249983
77 26 2 0.41 15.6907997 8.94711018 3.96170998
78 26 2 0.41 14.3943005 8.05076981 4.39049006
79 27 1 -0.82 14.1396999 17.4789009 18.1504993
80 27 2 0.41 14.4364996 17.9146996 18.9979
81 27 2 0.41 14.7793999 16.6865997 18.0573006
82 28 1 -0.82 1.42473996 17.1809998 3.54847002
83 28 2 0.41 0.612802982 17.4547005 4.0706501
84 28 2 0.41 2.23460007 17.0403996 4.15216017
85 29 1 -0.82 6.26708984 19.6590996 12.3021002
86 29 2 0.41 7.15605021 19.5088005 11.9139996
87 29 2 0.41 6.16969013 0.897866011 12.3558998
88 30 1 -0.82 2.59088993 8.58218002 2.97635007
89 30 2 0.41 1.80192995 9.14175987 2.94022989
90 30 2 0.41 3.20496988 9.30597019 2.64169002
91 31 1 -0.82 11.9735003 15.0600996 8.00127029
92 31 2 0.41 12.0237999 15.0398998 7.06012011
93 31 2 0.41 12.0379 14.1633997 8.24470043
94 32 1 -0.82 1.06930006 9.60993004 15.7670002
95 32 2 0.41 2.01097012 9.71685982 15.6861
96 32 2 0.41 0.81625098 9.58977032 14.8164997
97 33 1 -0.82 5.97528982 1.83162999 2.22820997
98 33 2 0.41 5.43575001 1.01768994 2.18236995
99 33 2 0.41 5.39888 2.64174008 2.08722997
100 34 1 -0.82 6.85500002 10.6229 10.5802002
101 34 2 0.41 7.40108013 9.91343975 10.8790998
102 34 2 0.41 7.04364014 11.3534002 11.2145996
103 35 1 -0.82 6.29217005 14.2489996 7.76691008
104 35 2 0.41 7.18400002 14.5056 7.46760988
105 35 2 0.41 6.47021008 14.2276001 8.76945019
106 36 1 -0.82 16.7096004 9.82901001 2.66192007
107 36 2 0.41 17.3684998 9.2200098 2.20366001
108 36 2 0.41 16.9787006 10.7222004 2.39506006
109 37 1 -0.82 19.4792995 1.21161997 0.118823998
110 37 2 0.41 19.0436001 2.13980007 0.39874199
111 37 2 0.41 18.7434006 0.696850002 19.4815006
112 38 1 -0.82 6.37203979 8.1661396 7.62518978
113 38 2 0.41 7.29640007 8.12053013 7.2396102
114 38 2 0.41 6.3489399 8.03855038 8.65515995
115 39 1 -0.82 4.60914993 3.37533998 16.9748001
116 39 2 0.41 4.54130983 2.82747006 17.7579994
117 39 2 0.41 4.17327023 4.25685978 17.1266994
118 40 1 -0.82 5.38274002 7.66232014 13.3204002
119 40 2 0.41 5.75563002 7.42578983 12.3985004
120 40 2 0.41 5.33665991 6.78305006 13.7402
121 41 1 -0.82 1.46844006 4.53447008 7.47921991
122 41 2 0.41 1.17558002 5.07902002 8.28876972
123 41 2 0.41 0.593430996 4.13873005 7.22968006
124 42 1 -0.82 12.7785997 18.3083992 5.89281988
125 42 2 0.41 13.5382004 18.7961998 5.53639984
126 42 2 0.41 12.0092001 18.7723999 5.41937017
127 43 1 -0.82 4.90026999 5.19073009 11.2866001
128 43 2 0.41 4.08462 4.99866009 10.7825003
129 43 2 0.41 5.60457993 4.80496979 10.6646004
130 44 1 -0.82 16.1798 7.69920015 7.11085987
131 44 2 0.41 15.8903999 8.07174969 6.22178984
132 44 2 0.41 15.7238998 8.18148994 7.79942989
133 45 1 -0.82 7.15242004 7.62438011 1.06654
134 45 2 0.41 7.80038977 7.79234982 1.82541001
135 45 2 0.41 7.53130007 8.25255966 0.398860008
136 46 1 -0.82 15.8813 12.9587002 15.9491997
137 46 2 0.41 15.6513004 12.5134001 15.0682001
138 46 2 0.41 16.7528 12.7224998 16.3817005
139 47 1 -0.82 1.64416003 18.6233997 1.41691005
140 47 2 0.41 0.820602 19.1537991 1.32604003
141 47 2 0.41 1.43578005 18.1235008 2.22803998
142 48 1 -0.82 7.76401997 16.2117004 1.08308005
143 48 2 0.41 7.83950996 16.6215992 1.98696005
144 48 2 0.41 6.92929983 15.5951004 1.17296004
145 49 1 -0.82 3.87128997 10.8522997 2.01106
146 49 2 0.41 3.88895011 10.4829998 1.07874
147 49 2 0.41 4.78792 10.8920002 2.29473996
148 50 1 -0.82 4.95574999 13.1906004 12.9953003
149 50 2 0.41 5.02064991 13.9477997 13.6311998
150 50 2 0.41 5.75479984 12.6330004 13.1452999
151 51 1 -0.82 16.2770996 19.3031006 5.08714008
152 51 2 0.41 16.9698009 18.7437992 5.4482398
153 51 2 0.41 16.5863991 19.3269005 4.1455698
154 52 1 -0.82 8.87598991 18.5454006 14.0116997
155 52 2 0.41 9.80101013 18.4323997 14.3497
156 52 2 0.41 8.6073103 17.6362 13.6978998
157 53 1 -0.82 13.6512003 6.17393017 8.1129303
158 53 2 0.41 14.0714998 5.39258003 8.50006962
159 53 2 0.41 13.2952003 5.86399984 7.23787022
160 54 1 -0.82 17.2171993 9.84864044 18.5062008
161 54 2 0.41 17.5296001 9.30727005 17.7562008
162 54 2 0.41 17.3416996 10.8036003 18.3006001
163 55 1 -0.82 4.80893993 1.92883003 6.30981016
164 55 2 0.41 5.58125019 1.62330997 5.74398994
165 55 2 0.41 4.6717701 2.84728003 5.98785019
166 56 1 -0.82 11.3794003 18.1518993 15.0816002
167 56 2 0.41 12.0290003 18.9475994 15.1659002
168 56 2 0.41 11.1964998 17.8803997 16.0160999
169 57 1 -0.82 9.64251041 7.10677004 7.08571005
170 57 2 0.41 10.4555998 6.47265005 7.21505022
171 57 2 0.41 9.82271957 7.41723013 6.18662024
172 58 1 -0.82 18.6601009 15.6119003 11.9314003
173 58 2 0.41 18.9694996 16.1644993 11.1950998
174 58 2 0.41 18.3841991 16.2261009 12.6695004
175 59 1 -0.82 11.5461998 11.3618002 16.5872002
176 59 2 0.41 12.4273996 11.6099997 16.9528008
177 59 2 0.41 11.651 10.2972002 16.5037003
178 60 1 -0.82 6.16617012 7.66287994 10.4362001
179 60 2 0.41 5.70636988 6.79068995 10.4811001
180 60 2 0.41 7.05916977 7.64645004 10.8564997
181 61 1 -0.82 4.20628977 12.1208 17.4165001
182 61 2 0.41 3.34047008 12.2083998 16.9339008
183 61 2 0.41 4.83734989 12.2622004 16.6800003
184 62 1 -0.82 0.254925996 6.05051994 9.51371956
185 62 2 0.41 19.5182991 6.74955988 9.05163956
186 62 2 0.41 0.93681699 6.4946599 10.0719995
187 63 1 -0.82 18.0704002 15.7514 1.49114001
188 63 2 0.41 18.9801006 15.4021997 1.77637005
189 63 2 0.41 17.6543007 14.9968996 1.08129001
190 64 1 -0.82 4.99807978 18.9339008 19.0063
191 64 2 0.41 4.62175989 0.0830703005 18.6863995
192 64 2 0.41 4.7333498 18.8971004 0.219882995
193 65 1 -0.82 8.07137012 17.2737007 10.1423998
194 65 2 0.41 7.72454977 16.6147003 9.5408802
195 65 2 0.41 9.01229 16.9176998 10.2254
196 66 1 -0.82 5.02450991 5.26070976 14.7996998
197 66 2 0.41 4.65858984 4.40172005 14.4895
198 66 2 0.41 5.48472023 5.23098993 15.7047005
199 67 1 -0.82 6.67271996 1.97288001 15.6152
200 67 2 0.41 6.65893984 1.02842999 15.7382002
201 67 2 0.41 5.88737011 2.30127001 16.0648003
202 68 1 -0.82 10.6316996 11.7066002 9.85023022
203 68 2 0.41 10.6262999 10.6864004 9.93564987
204 68 2 0.41 9.92399025 11.9688997 9.14256001
205 69 1 -0.82 19.3859005 6.40222979 19.4493008
206 69 2 0.41 0.607179999 6.52308989 19.6327
207 69 2 0.41 19.3512001 6.55414009 18.4430008
208 70 1 -0.82 18.9612007 18.0757008 5.06080008
209 70 2 0.41 18.8409996 18.5112991 4.15085983
210 70 2 0.41 19.2810993 18.8248005 5.57332993
211 71 1 -0.82 10.5841999 7.27357006 1.18304002
212 71 2 0.41 11.3986998 7.33167982 0.680450022
213 71 2 0.41 10.5046997 8.18138981 1.57736003
214 72 1 -0.82 16.4146004 2.68726993 10.7678003
215 72 2 0.41 16.5492992 2.02611995 10.0965996
216 72 2 0.41 16.1103992 2.26025009 11.6035004
217 73 1 -0.82 11.1262999 17.7042007 1.17565
218 73 2 0.41 10.3481998 17.9041996 1.80658996
219 73 2 0.41 10.8269997 17.9487 0.328916997
220 74 1 -0.82 17.1427002 5.50804996 2.84696007
221 74 2 0.41 17.9265003 6.01902008 3.11091995
222 74 2 0.41 16.4188004 5.91507006 3.32705998
223 75 1 -0.82 10.1306 2.02491999 8.31449986
224 75 2 0.41 11.0373001 1.98388004 8.77886009
225 75 2 0.41 9.39041996 1.69069004 8.86715031
226 76 1 -0.82 13.8660002 10.9168997 7.47107983
227 76 2 0.41 13.9240999 10.4141998 8.30500984
228 76 2 0.41 14.8466997 11.1379004 7.30163002
229 77 1 -0.82 5.77792978 2.16455007 8.82050991
230 77 2 0.41 5.0164299 1.88163996 9.37061024
231 77 2 0.41 5.58283997 2.16140008 7.84756994
232 78 1 -0.82 17.5457001 12.3985996 2.17309999
233 78 2 0.41 18.0853004 12.3903999 2.98209
234 78 2 0.41 16.8784008 13.1564999 2.41952991
235 79 1 -0.82 2.0185101 12.4765997 15.6351004
236 79 2 0.41 1.97238004 12.0811996 14.7416
237 79 2 0.41 1.91604996 13.4200001 15.4869003
238 80 1 -0.82 18.7012005 17.2096996 14.2042999
239 80 2 0.41 17.9101009 17.7999992 13.9998999
240 80 2 0.41 18.3309002 16.4838009 14.6940002
241 81 1 -0.82 3.30551004 0.999463975 9.86196995
242 81 2 0.41 2.98465991 0.370216995 10.5824003
243 81 2 0.41 2.59429002 1.68488002 9.68157959
244 82 1 -0.82 6.30425978 10.6037998 3.76109004
245 82 2 0.41 5.43549013 10.7980003 4.29792976
246 82 2 0.41 6.52065992 9.65814972 3.8332901
247 83 1 -0.82 3.11256003 16.8670006 17.9888992
248 83 2 0.41 3.82204008 17.3997993 18.4295006
249 83 2 0.41 2.23959994 17.3955002 18.1252003
250 84 1 -0.82 18.6154995 8.8940897 0.879978001
251 84 2 0.41 18.2523994 9.44859028 0.158640996
252 84 2 0.41 18.8283005 8.03483009 0.39241901
253 85 1 -0.82 18.4347 12.1506004 17.0907001
254 85 2 0.41 19.1657009 12.0899 16.3579998
255 85 2 0.41 18.9001999 12.6231003 17.8581009
256 86 1 -0.82 6.80478001 1.20640004 4.74901009
257 86 2 0.41 7.54982996 1.85082996 4.5861702
258 86 2 0.41 6.43464994 1.26784003 3.79122996
259 87 1 -0.82 1.63308001 16.7446995 13.3341999
260 87 2 0.41 1.70912004 16.2675991 12.5017004
261 87 2 0.41 0.795333028 17.1816998 13.2344999
262 88 1 -0.82 7.5622201 12.0963001 1.61523998
263 88 2 0.41 7.19534016 11.6816998 2.41443992
264 88 2 0.41 8.39813042 12.5501003 1.98831999
265 89 1 -0.82 7.12140989 13.6146002 17.8458996
266 89 2 0.41 7.85633993 13.7034998 18.4440002
267 89 2 0.41 6.92461014 12.6499996 17.7462006
268 90 1 -0.82 1.71965003 19.1875992 11.7309999
269 90 2 0.41 1.01029003 0.167134002 11.9435997
270 90 2 0.41 1.98719001 18.9043999 12.6246004
271 91 1 -0.82 16.6790009 4.89492989 6.47798014
272 91 2 0.41 16.0372009 4.42464018 5.93409014
273 91 2 0.41 16.3875999 5.80491018 6.62134981
274 92 1 -0.82 17.8903999 5.48616982 11.3729
275 92 2 0.41 18.6536999 5.68126011 10.7333002
276 92 2 0.41 17.7222996 4.4844799 11.3143997
277 93 1 -0.82 14.8694 11.8004999 13.7040997
278 93 2 0.41 15.6243 11.5840998 13.118
279 93 2 0.41 14.1330996 12.0906 13.1450996
280 94 1 -0.82 18.3423996 0.903496981 15.9695997
281 94 2 0.41 19.0997009 0.430011004 16.3185997
282 94 2 0.41 18.2653008 1.83813 16.3157997
283 95 1 -0.82 16.3593006 15.6075001 15.0482998
284 95 2 0.41 16.4517994 14.6424999 15.1122999
285 95 2 0.41 15.7221003 15.7847996 14.2378998
286 96 1 -0.82 17.8761997 9.91746998 9.42162991
287 96 2 0.41 18.3174 9.20063972 8.8724699
288 96 2 0.41 18.6664009 10.3542995 9.77820015
289 97 1 -0.82 12.5179996 4.64457989 17.7521992
290 97 2 0.41 11.9896002 4.28623009 17.0125999
291 97 2 0.41 11.8322001 5.3053298 18.1287994
292 98 1 -0.82 8.9171896 15.0584002 7.08436012
293 98 2 0.41 9.89789009 15.1429996 7.43129015
294 98 2 0.41 8.9134798 15.2657003 6.14845991
295 99 1 -0.82 12.5872002 10.3542004 5.01422024
296 99 2 0.41 13.4504995 9.90447998 4.89113998
297 99 2 0.41 12.7054005 10.5840998 5.97901011
298 100 1 -0.82 3.68296003 16.5804996 4.72694016
299 100 2 0.41 4.19090986 16.9762001 5.50864983
300 100 2 0.41 3.83758998 15.5818005 4.88897991
301 101 1 -0.82 12.0125999 5.15397978 6.01914978
302 101 2 0.41 12.4371996 5.53774023 5.25570011
303 101 2 0.41 11.9231005 4.21787977 5.8406601
304 102 1 -0.82 19.1541004 13.1280003 4.67164993
305 102 2 0.41 18.6214008 13.6731005 5.24660015
306 102 2 0.41 0.155971006 13.6267004 4.20990992
307 103 1 -0.82 5.70082998 14.2959003 4.77775002
308 103 2 0.41 5.59248018 14.3177996 3.80199003
309 103 2 0.41 5.11950016 13.6047001 5.09546995
310 104 1 -0.82 9.64074993 7.71332979 13.4082003
311 104 2 0.41 9.52686024 7.93120003 14.342
312 104 2 0.41 9.50712013 6.75072002 13.3399
313 105 1 -0.82 1.82765996 3.80702996 0.120750003
314 105 2 0.41 0.966521978 3.29233003 19.6912003
315 105 2 0.41 2.01529002 4.32653999 18.9894009
316 106 1 -0.82 11.7797003 1.99372005 13.3731003
317 106 2 0.41 12.1625004 2.9151001 13.3907003
318 106 2 0.41 10.9684 2.00988007 14.0101004
319 107 1 -0.82 18.2511997 2.91536999 3.92730999
320 107 2 0.41 18.0478001 3.88526011 3.74625993
321 107 2 0.41 19.1632996 2.55929995 3.63000989
322 108 1 -0.82 11.5893002 6.26964998 10.0073996
323 108 2 0.41 12.3502998 6.19067001 9.32707977
324 108 2 0.41 12.0333996 6.08117008 10.8448
325 109 1 -0.82 15.1345997 8.55463982 19.6056995
326 109 2 0.41 15.8942003 9.17481041 19.3791008
327 109 2 0.41 14.8922997 8.97922993 0.697466016
328 110 1 -0.82 6.22533989 5.2525301 6.97450018
329 110 2 0.41 6.27237988 6.22312021 7.13536978
330 110 2 0.41 5.82587004 4.86676979 7.7764101
331 111 1 -0.82 8.63543987 10.8695002 5.33423996
332 111 2 0.41 8.38901997 11.1487999 6.26652002
333 111 2 0.41 7.79748011 10.8879004 4.83642006
334 112 1 -0.82 11.5472002 12.8184004 1.06860995
335 112 2 0.41 11.0552998 13.5323 0.623489022
336 112 2 0.41 12.5106001 12.8425999 0.854893029
337 113 1 -0.82 0.619279027 15.0516005 18.2647991
338 113 2 0.41 0.537433982 14.8472004 17.2877007
339 113 2 0.41 1.48809004 15.4848003 18.3407001
340 114 1 -0.82 8.6623497 7.8608799 16.2735004
341 114 2 0.41 8.21722984 7.06681013 16.7735996
342 114 2 0.41 9.6219101 7.87797022 16.6205006
343 115 1 -0.82 6.95650005 5.00985003 19.4979992
344 115 2 0.41 7.65116978 4.26989985 19.5830002
345 115 2 0.41 7.31310987 5.76626015 0.27026099
346 116 1 -0.82 4.78522015 4.21429014 4.9138999
347 116 2 0.41 4.91359997 4.13992023 3.94921994
348 116 2 0.41 5.54365015 4.68051004 5.38369989
349 117 1 -0.82 14.5362997 15.4829998 8.96759987
350 117 2 0.41 13.6281996 15.3399 8.60326004
351 117 2 0.41 14.5739002 15.3725996 9.93745995
352 118 1 -0.82 12.8382998 0.678251028 15.3619003
353 118 2 0.41 12.658 1.15744996 14.5197001
354 118 2 0.41 13.8146 0.442506999 15.5320997
355 119 1 -0.82 13.2054005 9.70979023 1.93706
356 119 2 0.41 13.5557003 10.5837002 1.56315005
357 119 2 0.41 13.7802 9.59788036 2.75342989
358 120 1 -0.82 7.9604702 9.85542011 19.2688999
359 120 2 0.41 8.91963005 10.0248003 19.1919003
360 120 2 0.41 7.69027996 10.4194002 0.336988002
361 121 1 -0.82 8.34235954 1.01262999 0.480560005
362 121 2 0.41 8.21348 0.298676997 19.5342007
363 121 2 0.41 7.45921993 1.30707002 0.808209002
364 122 1 -0.82 12.6527996 4.5230298 12.4558001
365 122 2 0.41 13.1844997 4.89001989 13.2516003
366 122 2 0.41 13.2458 4.35521984 11.7201004
367 123 1 -0.82 5.83636999 15.4962997 11.0440998
368 123 2 0.41 6.54961014 15.8304996 11.6286001
369 123 2 0.41 5.66876984 14.5705996 11.2587004
370 124 1 -0.82 9.4604702 1.72827005 14.6803999
371 124 2 0.41 8.95242977 0.899101973 14.4975996
372 124 2 0.41 8.86791992 2.4784801 14.7732
373 125 1 -0.82 7.78232002 16.3810005 4.48913002
374 125 2 0.41 7.41324997 17.3068008 4.81557989
375 125 2 0.41 7.09658003 15.6998997 4.74996996
376 126 1 -0.82 12.3003998 9.26327991 12.5641003
377 126 2 0.41 11.5453997 8.62992001 12.5459995
378 126 2 0.41 11.8971004 10.1076002 12.9427004
379 127 1 -0.82 10.9294996 1.57828999 17.1133995
380 127 2 0.41 11.8174 1.39974999 16.7049999
381 127 2 0.41 10.3739996 1.74004996 16.2861996
382 128 1 -0.82 0.296407014 10.1822996 2.82487988
383 128 2 0.41 0.780382991 10.9980001 2.5527401
384 128 2 0.41 19.4610004 9.90769958 2.11611009
385 129 1 -0.82 2.31434989 12.6806002 10.3416004
386 129 2 0.41 3.06539011 12.0633001 10.5403996
387 129 2 0.41 2.08019996 12.6414003 9.38516045
388 130 1 -0.82 8.03127003 15.8437004 13.0609999
389 130 2 0.41 8.63076973 15.1680002 12.7502003
390 130 2 0.41 7.62790012 15.5179005 13.9159002
391 131 1 -0.82 16.7814007 11.2003002 7.32374001
392 131 2 0.41 17.2169991 10.6303997 6.51729012
393 131 2 0.41 17.0683994 10.7641001 8.22484016
394 132 1 -0.82 12.3650999 15.4805002 5.27755022
395 132 2 0.41 12.6798 16.4221001 5.34002018
396 132 2 0.41 11.6150999 15.6155005 4.67447996
397 133 1 -0.82 13.0486002 6.95273018 3.71293998
398 133 2 0.41 13.1578999 6.29254007 2.90955997
399 133 2 0.41 12.1552 7.28544998 3.60639
400 134 1 -0.82 7.98256016 0.449375004 9.35420036
401 134 2 0.41 7.09945011 0.904707015 9.25603962
402 134 2 0.41 7.7075901 19.1956997 9.47126007
403 135 1 -0.82 2.46668005 5.9075098 5.46017981
404 135 2 0.41 1.98292994 5.41625977 6.21717978
405 135 2 0.41 3.29969001 5.41017008 5.31700993
406 136 1 -0.82 6.9682498 3.09336996 13.1350002
407 136 2 0.41 6.19614983 3.44580007 12.6554003
408 136 2 0.41 6.65460014 2.67552996 13.9123001
409 137 1 -0.82 13.9450998 4.92300987 2.04266
410 137 2 0.41 14.6750002 5.35414982 1.30646002
411 137 2 0.41 13.1548004 4.60944986 1.51521003
412 138 1 -0.82 13.8134003 5.73586988 14.8907003
413 138 2 0.41 12.8613005 5.64245987 15.2084999
414 138 2 0.41 13.9341002 6.68740988 14.6763
415 139 1 -0.82 1.35614002 3.33999991 12.8814001
416 139 2 0.41 0.693692029 2.52511001 12.7166996
417 139 2 0.41 2.05416989 2.91323996 13.3901997
418 140 1 -0.82 2.25556993 8.8822403 8.49977016
419 140 2 0.41 3.0669601 9.27834988 8.83238029
420 140 2 0.41 2.55356002 8.88611031 7.53662014
421 141 1 -0.82 13.7404003 0.908688009 3.80613995
422 141 2 0.41 13.3785 0.875572979 2.85767007
423 141 2 0.41 14.7278996 1.16602004 3.76501989
424 142 1 -0.82 12.8814001 12.9369001 9.46078968
425 142 2 0.41 12.0068998 12.4811001 9.7125597
426 142 2 0.41 13.3548002 12.3091002 8.92411995
427 143 1 -0.82 0.935158014 10.7033997 5.88676977
428 143 2 0.41 0.864868999 11.6008997 5.48083019
429 143 2 0.41 1.23638999 10.9277 6.74685001
430 144 1 -0.82 0.432962 4.6860199 15.2903004
431 144 2 0.41 0.403277993 5.59589005 14.9309998
432 144 2 0.41 0.861274004 4.11119986 14.7002001
433 145 1 -0.82 4.01241016 14.3873997 19.2453003
434 145 2 0.41 3.72310996 15.2271004 18.8841991
435 145 2 0.41 4.47171021 13.8493004 18.5153008
436 146 1 -0.82 2.27436996 7.57350016 0.233878002
437 146 2 0.41 2.66289997 7.46402979 1.10666001
438 146 2 0.41 1.67777002 8.32079983 0.400887012
439 147 1 -0.82 2.97416997 19.1919994 7.35938978
440 147 2 0.41 3.33315992 19.4349995 8.2843399
441 147 2 0.41 3.5875001 -0.8476674472973 6.84064007
442 148 1 -0.82 4.09323978 4.02065992 1.84077001
443 148 2 0.41 3.15576005 3.96413994 1.86777997
444 148 2 0.41 4.27232981 5.01957989 2.08346009
445 149 1 -0.82 3.93906999 7.31073999 17.6012993
446 149 2 0.41 3.77285004 7.76399994 16.7670002
447 149 2 0.41 3.63368011 7.87674999 18.3302994
448 150 1 -0.82 11.6667004 2.56552005 5.35780001
449 150 2 0.41 12.2812004 1.86561 4.98612022
450 150 2 0.41 11.0481997 2.73608994 4.64569998
451 151 1 -0.82 4.05772018 19.6138 2.29193997
452 151 2 0.41 4.28380013 18.7924004 2.73075008
453 151 2 0.41 3.18951988 19.4279003 1.86527002
454 152 1 -0.82 3.84316993 9.9087801 19.3575001
455 152 2 0.41 4.14070988 10.5124998 18.6228008
456 152 2 0.41 2.87589002 9.84584999 19.2350998
457 153 1 -0.82 1.38584995 12.5614996 7.79656982
458 153 2 0.41 1.95679998 13.1798 7.24943018
459 153 2 0.41 0.596355975 13.1667995 7.95382977
460 154 1 -0.82 7.63458014 11.6406002 13.1039
461 154 2 0.41 7.40440989 10.7292995 13.4280005
462 154 2 0.41 8.24744987 12.0930996 13.7349997
463 155 1 -0.82 14.5479002 13.4403 11.4969997
464 155 2 0.41 13.8322001 13.3397999 10.8260002
465 155 2 0.41 15.3102999 13.3882999 10.8917999
466 156 1 -0.82 2.73216009 8.59541035 5.97960997
467 156 2 0.41 2.07262993 8.99958992 5.37097979
468 156 2 0.41 2.65477991 7.60763979 5.83709002
469 157 1 -0.82 18.4293003 3.75971007 19.4787006
470 157 2 0.41 18.5445995 3.68979001 18.4979
471 157 2 0.41 18.7362003 4.68417978 19.6000004
472 158 1 -0.82 8.42086983 8.62077045 11.1618004
473 158 2 0.41 8.91827965 8.43072033 11.9699001
474 158 2 0.41 9.16477013 8.5708704 10.4756002
475 159 1 -0.82 10.3123999 15.8502998 3.27391005
476 159 2 0.41 10.0934 14.8898001 3.0374701
477 159 2 0.41 9.48668003 16.1702003 3.78635001
478 160 1 -0.82 0.552344978 15.0227003 15.5394001
479 160 2 0.41 0.0130995996 14.3242998 15.0846996
480 160 2 0.41 1.05244005 15.5475998 14.8252001
481 161 1 -0.82 0.820156991 0.176071003 6.1166501
482 161 2 0.41 1.59642994 19.4594994 6.56770992
483 161 2 0.41 0.432038009 0.656408012 6.83330011
484 162 1 -0.82 10.3136997 8.80906963 4.87400007
485 162 2 0.41 11.1767998 9.31091976 5.1624198
486 162 2 0.41 9.61394024 9.51811981 5.08103991
487 163 1 -0.82 14.8158998 2.68549991 15.9364004
488 163 2 0.41 13.9884996 3.13977003 15.6357002
489 163 2 0.41 14.5523005 2.04290009 16.6266003
490 164 1 -0.82 15.8753004 2.76321006 0.347678989
491 164 2 0.41 15.7206001 3.69173002 0.727303982
492 164 2 0.41 16.5312004 2.84868002 19.3948994
493 165 1 -0.82 15.3923998 17.7409992 11.4405003
494 165 2 0.41 15.1688995 17.1401005 12.1671
495 165 2 0.41 16.1058998 18.2716999 11.8112001
496 166 1 -0.82 19.0869007 1.62047994 9.03217983
497 166 2 0.41 18.5286999 0.826619029 9.0294199
498 166 2 0.41 18.6762009 2.24991012 8.39171982
499 167 1 -0.82 11.0320997 4.91915989 15.2904997
500 167 2 0.41 10.6082001 4.65747023 14.4691
501 167 2 0.41 10.4448004 5.50769997 15.8039999
502 168 1 -0.82 15.0916004 3.52892995 4.72631979
503 168 2 0.41 15.1154003 3.75238991 3.82048988
504 168 2 0.41 14.1738997 3.20662999 4.96506023
505 169 1 -0.82 16.7516994 1.06769001 2.50124002
506 169 2 0.41 16.3936996 1.65260994 1.77391005
507 169 2 0.41 17.2723007 1.64785004 3.08877993
508 170 1 -0.82 10.2334995 19.6494999 5.10115004
509 170 2 0.41 9.48106003 19.1555004 5.51400995
510 170 2 0.41 10.4064999 0.647554994 5.74226999
511 171 1 -0.82 13.4615002 0.131270006 11.7826004
512 171 2 0.41 12.5136003 0.0491833016 12.0628004
513 171 2 0.41 13.9069996 19.0499001 11.5967999
514 172 1 -0.82 3.85661006 9.45285988 15.8519001
515 172 2 0.41 4.5033102 9.4759903 15.1169004
516 172 2 0.41 4.45831013 9.70242977 16.6320992
517 173 1 -0.82 16.8034992 8.41425037 11.5165997
518 173 2 0.41 16.7210007 7.4763999 11.5803003
519 173 2 0.41 17.3012009 8.50592041 10.6857004
520 174 1 -0.82 15.0222998 19.0060005 16.2425003
521 174 2 0.41 15.4083996 18.6352997 15.4449997
522 174 2 0.41 14.4511003 18.3831005 16.8621006
523 175 1 -0.82 12.1603003 15.4162998 14.5543003
524 175 2 0.41 11.6057997 14.8415003 14.0791998
525 175 2 0.41 11.8535995 16.3834991 14.5816002
526 176 1 -0.82 10.5290003 9.77118969 2.18287992
527 176 2 0.41 10.3529997 9.51618004 3.11601996
528 176 2 0.41 11.5227003 9.73017979 2.08720994
529 177 1 -0.82 12.5502996 8.24201965 19.0757008
530 177 2 0.41 12.0093002 9.02062988 19.4325008
531 177 2 0.41 13.4826002 8.32806969 19.3474998
532 178 1 -0.82 6.80517006 9.42247963 14.5393
533 178 2 0.41 7.29153013 8.86886978 15.1627998
534 178 2 0.41 6.26721001 8.80383015 14.0075998
535 179 1 -0.82 3.36372995 2.57372999 14.6850004
536 179 2 0.41 3.73819995 2.8606801 15.5879002
537 179 2 0.41 3.58641005 1.58477998 14.6690998
538 180 1 -0.82 17.4188004 19.7073994 13.6039
539 180 2 0.41 17.7572994 0.222665995 14.4650002
540 180 2 0.41 16.5772991 0.549610972 13.5293999
541 181 1 -0.82 2.21192002 12.8975 1.00338995
542 181 2 0.41 2.88161993 12.2307997 1.35795999
543 181 2 0.41 2.78893995 13.3346996 0.297390997
544 182 1 -0.82 17.7728004 18.9860992 9.6522398
545 182 2 0.41 17.0296993 18.6396999 9.12911987
546 182 2 0.41 18.5433006 18.3451004 9.59712982
547 183 1 -0.82 4.08388996 2.17835999 19.3339996
548 183 2 0.41 3.33741999 2.80826998 19.4109001
549 183 2 0.41 4.78480005 2.66396999 19.7031994
550 184 1 -0.82 5.92986012 14.4076004 1.50797999
551 184 2 0.41 6.2739501 13.4897003 1.28366995
552 184 2 0.41 5.18277979 14.4644003 0.846345007
553 185 1 -0.82 14.1562004 1.04396999 18.4939995
554 185 2 0.41 14.9363003 0.439554989 18.5282001
555 185 2 0.41 14.3753996 1.80520999 19.0655003
556 186 1 -0.82 16.1678009 5.39518023 16.8848
557 186 2 0.41 15.3983002 5.24058008 16.2877998
558 186 2 0.41 15.8874998 5.16690016 17.7639008
559 187 1 -0.82 18.3455009 18.4365005 2.49195004
560 187 2 0.41 17.7546997 19.2136002 2.16129994
561 187 2 0.41 17.8789005 17.5974998 2.3106699
562 188 1 -0.82 10.4700003 18.5869999 17.9293995
563 188 2 0.41 9.45036983 18.7318001 18.0930004
564 188 2 0.41 10.6715002 19.5132008 17.7646999
565 189 1 -0.82 11.9764996 8.6392498 16.4610004
566 189 2 0.41 12.7730999 8.59939957 15.9062996
567 189 2 0.41 12.2314997 8.48488045 17.4048004
568 190 1 -0.82 19.5076008 6.24549007 4.13841009
569 190 2 0.41 0.182979003 7.02162981 3.72322989
570 190 2 0.41 0.530121982 5.97751999 4.7979598
571 191 1 -0.82 12.7391005 1.47088003 9.21825027
572 191 2 0.41 12.8699999 0.875712991 10.0179005
573 191 2 0.41 13.3933001 1.06575 8.57522964
574 192 1 -0.82 19.5531998 7.31292009 16.8630009
575 192 2 0.41 18.6847992 7.6423502 16.5510006
576 192 2 0.41 0.406064004 8.0564003 16.5830994
577 193 1 -0.82 8.62985992 3.63990998 6.53696012
578 193 2 0.41 7.84826994 3.98744988 7.01550007
579 193 2 0.41 9.13743019 3.14561009 7.21156979
580 194 1 -0.82 17.0923004 0.284539998 18.7803001
581 194 2 0.41 17.2126999 0.246861994 17.8332005
582 194 2 0.41 16.9456005 19.0634003 18.9030991
583 195 1 -0.82 14.0290003 4.00228977 10.3505001
584 195 2 0.41 13.6050997 3.18778992 10.0580997
585 195 2 0.41 14.9257002 3.6263299 10.559
586 196 1 -0.82 6.73380995 10.9612999 17.2670002
587 196 2 0.41 7.2641201 10.4899998 18.0123005
588 196 2 0.41 7.14911985 10.8408003 16.3640995
589 197 1 -0.82 9.14694023 18.7954006 2.52736998
590 197 2 0.41 8.80140018 19.3073006 1.73536003
591 197 2 0.41 9.50259972 19.4304008 3.12852001
592 198 1 -0.82 3.67213988 19.4055004 14.0313997
593 198 2 0.41 3.38573003 18.6721001 14.6073999
594 198 2 0.41 4.59358978 19.2446003 13.8283005
595 199 1 -0.82 3.16970992 14.3916998 6.44177008
596 199 2 0.41 2.8815999 15.1571999 6.94694996
597 199 2 0.41 3.98741007 14.2278004 6.94941998
598 200 1 -0.82 13.6392002 13.6419001 3.7137599
599 200 2 0.41 13.0634003 14.1392002 4.28483009
600 200 2 0.41 13.1265001 12.8083 3.59541988
601 201 1 -0.82 3.85619998 16.9652996 15.2090998
602 201 2 0.41 3.41506004 16.1879997 14.8219004
603 201 2 0.41 3.58802009 17.0459003 16.1366997
604 202 1 -0.82 8.18750954 11.8943005 8.25333977
605 202 2 0.41 7.51524019 12.5872002 8.05422974
606 202 2 0.41 7.66203022 11.2182999 8.75763988
607 203 1 -0.82 7.83764982 18.7476006 5.91202021
608 203 2 0.41 7.38492012 19.2045994 6.66232014
609 203 2 0.41 7.55510998 19.3533001 5.19109011
610 204 1 -0.82 13.9005003 12.7912998 17.6481991
611 204 2 0.41 13.3417997 13.6094999 17.6156006
612 204 2 0.41 14.6988001 13.0137997 16.9923992
613 205 1 -0.82 9.21850014 5.91931009 4.44574022
614 205 2 0.41 10.1016998 6.2895298 4.34667015
615 205 2 0.41 9.35731983 5.33946991 5.24643993
616 206 1 -0.82 9.81507015 12.6746998 3.19162989
617 206 2 0.41 9.91125965 11.9570999 3.89517999
618 206 2 0.41 10.5384998 12.5417995 2.50660992
619 207 1 -0.82 4.71809006 17.7835007 9.72093964
620 207 2 0.41 5.25595999 18.4228992 10.1809998
621 207 2 0.41 4.82861996 17.0025005 10.3102999
622 208 1 -0.82 15.2165003 1.48847997 13.1066999
623 208 2 0.41 14.4745998 0.977258027 12.5712996
624 208 2 0.41 14.7806997 1.97159004 13.8341999
625 209 1 -0.82 6.97250986 18.9659004 15.7965002
626 209 2 0.41 7.34791994 18.8150005 16.6847992
627 209 2 0.41 7.76449013 18.6704006 15.2615004
628 210 1 -0.82 7.2202301 8.01947975 4.46799994
629 210 2 0.41 6.56753016 7.32853985 4.42951012